------------------------------------------------------------
          Invoking FHI-aims ...

          When using FHI-aims, please cite the following reference:

            Volker Blum, Ralf Gehrke, Felix Hanke, Paula Havu,
            Ville Havu, Xinguo Ren, Karsten Reuter, and Matthias Scheffler,
            'Ab Initio Molecular Simulations with Numeric Atom-Centered Orbitals',
            Computer Physics Communications 180, 2175-2196 (2009)

          In addition, many other developments in FHI-aims are likely important for
          your particular application. A partial list of references is given at the end of
          this file. Thank you for giving credit to the authors of these developments.

          For any questions about FHI-aims, please visit our slack channel at

            https://fhi-aims.slack.com

          and our main development and support site at

            https://aims-git.rz-berlin.mpg.de .

          The latter site, in particular, has a wiki to collect information, as well
          as an issue tracker to log discussions, suggest improvements, and report issues
          or bugs. https://aims-git.rz-berlin.mpg.de is also the main development site
          of the project and all new and updated code versions can be obtained there.
          Please send an email to aims-coordinators@fhi-berlin.mpg.de and we will add
          you to these sites. They are for you and everyone is welcome there.

------------------------------------------------------------



  Date     :  20210218, Time     :  120115.173
  Time zero on CPU 1             :   0.728627000000000E+00  s.
  Internal wall clock time zero  :           382881675.173  s.

  FHI-aims created a unique identifier for this run for later identification
  aims_uuid : 7E6A0A22-53A0-4589-AFEE-4C45A260EDA3

  Build configuration of the current instance of FHI-aims
  -------------------------------------------------------
  FHI-aims version      : 200926
  Commit number         : b6bf0210e
  CMake host system     : Linux-4.12.14-197.51-default
  CMake version         : 3.10.2
  Fortran compiler      : /mpcdf/soft/SLE_15/packages/x86_64/intel_parallel_studio/2020.2/compilers_and_libraries_2020.2.254/linux/mpi/intel64/bin/mpiifort (Intel) version 19.1.2.20200623
  Fortran compiler flags: -O3 -ip -fp-model precise
  C compiler            : /mpcdf/soft/SLE_15/packages/x86_64/intel_parallel_studio/2020.2/compilers_and_libraries_2020.2.254/linux/mpi/intel64/bin/mpiicc (Intel) version 19.1.2.20200623
  C compiler flags      : -O3 -ip -fp-model precise -std=gnu99
  C++ compiler          : /mpcdf/soft/SLE_15/packages/x86_64/intel_parallel_studio/2020.2/compilers_and_libraries_2020.2.254/linux/mpi/intel64/bin/mpiicpc (Intel) version 19.1.2.20200623
  C++ compiler flags    : -O3 -ip -fp-model precise
  ELPA2 kernel          : AVX512
  Using MPI
  Using ScaLAPACK
  Using LibXC
  Using i-PI
  Using RLSY
  Linking against: /mpcdf/soft/SLE_15/packages/x86_64/intel_parallel_studio/2020.2/mkl/lib/intel64/libmkl_intel_lp64.so
                   /mpcdf/soft/SLE_15/packages/x86_64/intel_parallel_studio/2020.2/mkl/lib/intel64/libmkl_sequential.so
                   /mpcdf/soft/SLE_15/packages/x86_64/intel_parallel_studio/2020.2/mkl/lib/intel64/libmkl_core.so
                   /mpcdf/soft/SLE_15/packages/x86_64/intel_parallel_studio/2020.2/mkl/lib/intel64/libmkl_blacs_intelmpi_lp64.so
                   /mpcdf/soft/SLE_15/packages/x86_64/intel_parallel_studio/2020.2/mkl/lib/intel64/libmkl_scalapack_lp64.so

  Using       96 parallel tasks.
  Task        0 on host ravc4151 reporting.
  Task        1 on host ravc4151 reporting.
  Task        2 on host ravc4151 reporting.
  Task        3 on host ravc4151 reporting.
  Task        4 on host ravc4151 reporting.
  Task        5 on host ravc4151 reporting.
  Task        6 on host ravc4151 reporting.
  Task        7 on host ravc4151 reporting.
  Task        8 on host ravc4151 reporting.
  Task        9 on host ravc4151 reporting.
  Task       10 on host ravc4151 reporting.
  Task       11 on host ravc4151 reporting.
  Task       12 on host ravc4151 reporting.
  Task       13 on host ravc4151 reporting.
  Task       14 on host ravc4151 reporting.
  Task       15 on host ravc4151 reporting.
  Task       16 on host ravc4151 reporting.
  Task       17 on host ravc4151 reporting.
  Task       18 on host ravc4151 reporting.
  Task       19 on host ravc4151 reporting.
  Task       20 on host ravc4151 reporting.
  Task       21 on host ravc4151 reporting.
  Task       22 on host ravc4151 reporting.
  Task       23 on host ravc4151 reporting.
  Task       24 on host ravc4151 reporting.
  Task       25 on host ravc4151 reporting.
  Task       26 on host ravc4151 reporting.
  Task       27 on host ravc4151 reporting.
  Task       28 on host ravc4151 reporting.
  Task       29 on host ravc4151 reporting.
  Task       30 on host ravc4151 reporting.
  Task       31 on host ravc4151 reporting.
  Task       32 on host ravc4151 reporting.
  Task       33 on host ravc4151 reporting.
  Task       34 on host ravc4151 reporting.
  Task       35 on host ravc4151 reporting.
  Task       36 on host ravc4151 reporting.
  Task       37 on host ravc4151 reporting.
  Task       38 on host ravc4151 reporting.
  Task       39 on host ravc4151 reporting.
  Task       40 on host ravc4151 reporting.
  Task       41 on host ravc4151 reporting.
  Task       42 on host ravc4151 reporting.
  Task       43 on host ravc4151 reporting.
  Task       44 on host ravc4151 reporting.
  Task       45 on host ravc4151 reporting.
  Task       46 on host ravc4151 reporting.
  Task       47 on host ravc4151 reporting.
  Task       48 on host ravc4151 reporting.
  Task       49 on host ravc4151 reporting.
  Task       50 on host ravc4151 reporting.
  Task       51 on host ravc4151 reporting.
  Task       52 on host ravc4151 reporting.
  Task       53 on host ravc4151 reporting.
  Task       54 on host ravc4151 reporting.
  Task       55 on host ravc4151 reporting.
  Task       56 on host ravc4151 reporting.
  Task       57 on host ravc4151 reporting.
  Task       58 on host ravc4151 reporting.
  Task       59 on host ravc4151 reporting.
  Task       60 on host ravc4151 reporting.
  Task       61 on host ravc4151 reporting.
  Task       62 on host ravc4151 reporting.
  Task       63 on host ravc4151 reporting.
  Task       64 on host ravc4151 reporting.
  Task       65 on host ravc4151 reporting.
  Task       66 on host ravc4151 reporting.
  Task       67 on host ravc4151 reporting.
  Task       68 on host ravc4151 reporting.
  Task       69 on host ravc4151 reporting.
  Task       70 on host ravc4151 reporting.
  Task       71 on host ravc4151 reporting.
  Task       72 on host ravc4151 reporting.
  Task       73 on host ravc4151 reporting.
  Task       74 on host ravc4151 reporting.
  Task       75 on host ravc4151 reporting.
  Task       76 on host ravc4151 reporting.
  Task       77 on host ravc4151 reporting.
  Task       78 on host ravc4151 reporting.
  Task       79 on host ravc4151 reporting.
  Task       80 on host ravc4151 reporting.
  Task       81 on host ravc4151 reporting.
  Task       82 on host ravc4151 reporting.
  Task       83 on host ravc4151 reporting.
  Task       84 on host ravc4151 reporting.
  Task       85 on host ravc4151 reporting.
  Task       86 on host ravc4151 reporting.
  Task       87 on host ravc4151 reporting.
  Task       88 on host ravc4151 reporting.
  Task       89 on host ravc4151 reporting.
  Task       90 on host ravc4151 reporting.
  Task       91 on host ravc4151 reporting.
  Task       92 on host ravc4151 reporting.
  Task       93 on host ravc4151 reporting.
  Task       94 on host ravc4151 reporting.
  Task       95 on host ravc4151 reporting.

  Performing system and environment tests:
  | Environment variable OMP_NUM_THREADS correctly set to 1.
  | Checking for ScaLAPACK...
  | Testing pdtran()...
  | All pdtran() tests passed.

  Obtaining array dimensions for all initial allocations:
  
  -----------------------------------------------------------------------
  Parsing control.in (first pass over file, find array dimensions only).
  The contents of control.in will be repeated verbatim below
  unless switched off by setting 'verbatim_writeout .false.' .
  in the first line of control.in .
  -----------------------------------------------------------------------
  
  #===============================================================================
  # FHI-aims file: ./control.in
  # Created using the Atomic Simulation Environment (ASE)
  # Thu Feb 18 12:01:10 2021
  #===============================================================================
  xc                                 pbesol
  sc_accuracy_rho                    1e-06
  sc_accuracy_eev                    0.0001
  sc_accuracy_etot                   1e-06
  sc_accuracy_forces                 0.0001
  compute_heat_flux                  .false.
  compute_analytical_stress          .true.
  compensate_multipole_errors        False
  normalize_initial_density          False
  mixer                              pulay
  n_max_pulay                        10
  charge_mix_param                   0.15
  k_grid                             2 2 2
  relativistic                       atomic_zora scalar
  occupation_type                    gaussian  0.1
  output_level                       MD_light
  compute_forces                     .true.
  use_pimd_wrapper                   localhost 10011
  #===============================================================================
  
  # carbogno special
  
  ################################################################################
  #
  #  FHI-aims code project
  #  VB, Fritz-Haber Institut, 2009
  #
  #  Suggested "light" defaults for Zr atom (to be pasted into control.in file)
  #  Be sure to double-check any results obtained with these settings for post-processing,
  #  e.g., with the "tight" defaults and larger basis sets.
  #
  ################################################################################
    species          Zr
  #     global species definitions
      nucleus        40
      mass           91.224
  #
      l_hartree      4
  #
      cut_pot        3.5  1.5  1.0
      basis_dep_cutoff    1e-4
  #
      radial_base    58  5.0
      radial_multiplier  1
      angular_grids specified
        division   0.5825   50
        division   1.1060  110
        division   1.4586  194
        division   1.7061  302
  #      division   1.9320  434
  #      division   2.2803  590
  #      division   2.4151  770
  #      division   2.4626  974
  #      division   3.1649 1202
  #      outer_grid  974
        outer_grid  302
  ################################################################################
  #
  #  Definition of "minimal" basis
  #
  ################################################################################
  #     valence basis states
      valence      5  s   2.
      valence      4  p   6.
      valence      4  d   2.
  #     ion occupancy
      ion_occ      5  s   1.
      ion_occ      4  p   6.
      ion_occ      4  d   1.
  ################################################################################
  #
  #  Suggested additional basis functions. For production calculations,
  #  uncomment them one after another (the most important basis functions are
  #  listed first).
  #
  #  Constructed for dimers: 1.9, 2.25, 3.00, 4.00 Ang
  #
  ################################################################################
  #  "First tier" - improvements: -605.96 meV to -18.06 meV
       hydro 4 f 7.2
       ionic 4 d auto
       ionic 5 p auto
  #     hydro 5 g 10.4
       ionic 5 s auto
  #  "Second tier" - improvements: -32.47 meV to -1.41 meV
  #     hydro 4 f 10.4
  #     hydro 6 h 14.8
  #     hydro 4 d 6.2
  #     hydro 4 p 4.4
  #     hydro 4 f 20
  #     hydro 5 s 6
  #  "Third tier" - improvements: -1.99 meV and lower.
  #     hydro 4 f 5.8
  #     hydro 5 g 10.8
  #     hydro 2 p 1
  #     hydro 3 d 8
  #     hydro 6 h 14.4
  #     hydro 1 s 0.9
  #  Further functions (approx -0.40 meV and below possible)
  # the carbogno special
  ################################################################################
  #
  #  FHI-aims code project
  #  VB, Fritz-Haber Institut, 2009
  #
  #  Suggested "light" defaults for O atom (to be pasted into control.in file)
  #  Be sure to double-check any results obtained with these settings for post-processing,
  #  e.g., with the "tight" defaults and larger basis sets.
  #
  ################################################################################
    species        O
  #     global species definitions
      nucleus             8
      mass                15.9994
  #
      l_hartree           4
  #
      cut_pot             3.5  1.5  1.0
      basis_dep_cutoff    1e-4
  #
      radial_base         36 5.0
      radial_multiplier   1
       angular_grids specified
        division   0.2659   50
        division   0.4451  110
        division   0.6052  194
        division   0.7543  302
  #      division   0.8014  434
  #      division   0.8507  590
  #      division   0.8762  770
  #      division   0.9023  974
  #      division   1.2339 1202
  #      outer_grid 974
        outer_grid 302
  ################################################################################
  #
  #  Definition of "minimal" basis
  #
  ################################################################################
  #     valence basis states
      valence      2  s   2.
      valence      2  p   4.
  #     ion occupancy
      ion_occ      2  s   1.
      ion_occ      2  p   3.
  ################################################################################
  #
  #  Suggested additional basis functions. For production calculations,
  #  uncomment them one after another (the most important basis functions are
  #  listed first).
  #
  #  Constructed for dimers: 1.0 A, 1.208 A, 1.5 A, 2.0 A, 3.0 A
  #
  ################################################################################
  #  "First tier" - improvements: -699.05 meV to -159.38 meV
       hydro 2 p 1.8
       hydro 3 d 7.6
       hydro 3 s 6.4
  #  "Second tier" - improvements: -49.91 meV to -5.39 meV
       hydro 4 f 11.6
  #     hydro 3 p 6.2
  #     hydro 3 d 5.6
  #     hydro 5 g 17.6
  #     hydro 1 s 0.75
  #  "Third tier" - improvements: -2.83 meV to -0.50 meV
  #     ionic 2 p auto
  #     hydro 4 f 10.8
  #     hydro 4 d 4.7
  #     hydro 2 s 6.8
  #  "Fourth tier" - improvements: -0.40 meV to -0.12 meV
  #     hydro 3 p 5
  #     hydro 3 s 3.3
  #     hydro 5 g 15.6
  #     hydro 4 f 17.6
  #     hydro 4 d 14
  # Further basis functions - -0.08 meV and below
  #     hydro 3 s 2.1
  #     hydro 4 d 11.6
  #     hydro 3 p 16
  #     hydro 2 s 17.2
  
  -----------------------------------------------------------------------
  Completed first pass over input file control.in .
  -----------------------------------------------------------------------
  
  
  -----------------------------------------------------------------------
  Parsing geometry.in (first pass over file, find array dimensions only).
  The contents of geometry.in will be repeated verbatim below
  unless switched off by setting 'verbatim_writeout .false.' .
  in the first line of geometry.in .
  -----------------------------------------------------------------------
  
  #=======================================================
  # FHI-aims file: ./geometry.in
  # Created using the Atomic Simulation Environment (ASE)
  # Thu Feb 18 12:01:10 2021
  #=======================================================
  lattice_vector 2.5378861399999990 2.5378861399999995 0.0000000000000000
  lattice_vector -2.5378861399999990 2.5378861399999995 0.0000000000000000
  lattice_vector 0.0000000000000000 0.0000000000000000 5.1867880599999996
  atom_frac 0.0000000000000000 -0.0000000000000000 0.0000000000000000 Zr
  atom_frac 0.5000000000000001 0.4999999999999999 0.5000000000000000 Zr
  atom_frac 0.5000000000000001 -0.0000000000000000 0.2023395800000000 O
  atom_frac 0.5000000000000001 -0.0000000000000000 0.7023395799999999 O
  atom_frac 0.0000000000000000 0.5000000000000000 0.2976604200000000 O
  atom_frac 0.0000000000000000 0.5000000000000000 0.7976604199999999 O
  
  -----------------------------------------------------------------------
  Completed first pass over input file geometry.in .
  -----------------------------------------------------------------------
  

  Basic array size parameters:
  | Number of species                 :        2
  | Number of atoms                   :        6
  | Number of lattice vectors         :        3
  | Max. basis fn. angular momentum   :        3
  | Max. atomic/ionic basis occupied n:        5
  | Max. number of basis fn. types    :        3
  | Max. radial fns per species/type  :       10
  | Max. logarithmic grid size        :     1432
  | Max. radial integration grid size :       58
  | Max. angular integration grid size:      302
  | Max. angular grid division number :        8
  | Radial grid for Hartree potential :     1432
  | Number of spin channels           :        1

------------------------------------------------------------
          Reading file control.in.
------------------------------------------------------------
  XC: Using PBEsol gradient-corrected functionals.
  Convergence accuracy of self-consistent charge density:  0.1000E-05
  Convergence accuracy of sum of eigenvalues:  0.1000E-03
  Convergence accuracy of total energy:  0.1000E-05
  Convergence accuracy of forces:  0.1000E-03
  Switching off the compensation of charge integration errors on the
  3D integration grid.
  Initial density will not be normalized to have the right charge on the 3D integration grid.
  The normalization used will pertain to free atoms normalized on a dense logarithmic grid.
  Using pulay charge density mixing.
  Pulay mixing - number of memorized iterations:   10
  Charge density mixing - mixing parameter:     0.1500
  Found k-point grid:         2         2         2
  Scalar relativistic treatment of kinetic energy: on-site free-atom approximation to ZORA.
  Occupation type: Gaussian broadening, width =   0.100000E+00 eV.
  Requested output level: MD_light
  Forces will be computed.
  Using external wrapper (i-PI) for performing (path integral) molecular dynamics
  **Attention: initial geometry.in file will be ignored!
 
  Reading configuration options for species Zr                  .
  | Found nuclear charge :  40.0000
  | Found atomic mass :    91.2240000000000      amu
  | Found l_max for Hartree potential  :   4
  | Found cutoff potl. onset [A], width [A], scale factor :    3.50000    1.50000    1.00000
  | Threshold for basis-dependent cutoff potential is   0.100000E-03
  | Found data for basic radial integration grid :    58 points, outermost radius =    5.000 A
  | Found multiplier for basic radial grid :   1
  | Found angular grid specification: user-specified.
  | Specified grid contains     5 separate shells.
  | Check grid settings after all constraints further below.
  | Found free-atom valence shell :  5 s   2.000
  | Found free-atom valence shell :  4 p   6.000
  | Found free-atom valence shell :  4 d   2.000
  | Found free-ion valence shell :  5 s   1.000
  | Found free-ion valence shell :  4 p   6.000
  | Found free-ion valence shell :  4 d   1.000
  | Found hydrogenic basis function :  4 f   7.200
  | Found ionic basis function :  4 d , default cutoff radius.
  | Found ionic basis function :  5 p , default cutoff radius.
  | Found ionic basis function :  5 s , default cutoff radius.
  Species Zr                  : Missing cutoff potential type.
  Defaulting to exp(1/x)/(1-x)^2 type cutoff potential.
  Species Zr: No 'logarithmic' tag. Using default grid for free atom:
  | Default logarithmic grid data [bohr] : 0.1000E-03 0.1000E+03 0.1012E+01
  | Will include ionic basis functions of  2.0-fold positive Zr                   ion.
  Species Zr: On-site basis accuracy parameter (for Gram-Schmidt orthonormalisation) not specified.
  Using default value basis_acc =  0.1000000E-03.
  Species Zr                  : Using default innermost maximum threshold i_radial=  2 for radial functions.
  Species Zr                  : Default cutoff onset for free atom density etc. : 0.35000000E+01 AA.
  Species Zr                  : Basic radial grid will be enhanced according to radial_multiplier =   1, to contain    58 grid points.
 
  Reading configuration options for species O                   .
  | Found nuclear charge :   8.0000
  | Found atomic mass :    15.9994000000000      amu
  | Found l_max for Hartree potential  :   4
  | Found cutoff potl. onset [A], width [A], scale factor :    3.50000    1.50000    1.00000
  | Threshold for basis-dependent cutoff potential is   0.100000E-03
  | Found data for basic radial integration grid :    36 points, outermost radius =    5.000 A
  | Found multiplier for basic radial grid :   1
  | Found angular grid specification: user-specified.
  | Specified grid contains     5 separate shells.
  | Check grid settings after all constraints further below.
  | Found free-atom valence shell :  2 s   2.000
  | Found free-atom valence shell :  2 p   4.000
  | Found free-ion valence shell :  2 s   1.000
  | Found free-ion valence shell :  2 p   3.000
  | Found hydrogenic basis function :  2 p   1.800
  | Found hydrogenic basis function :  3 d   7.600
  | Found hydrogenic basis function :  3 s   6.400
  | Found hydrogenic basis function :  4 f  11.600
  Species O                   : Missing cutoff potential type.
  Defaulting to exp(1/x)/(1-x)^2 type cutoff potential.
  Species O : No 'logarithmic' tag. Using default grid for free atom:
  | Default logarithmic grid data [bohr] : 0.1000E-03 0.1000E+03 0.1012E+01
  Species O : On-site basis accuracy parameter (for Gram-Schmidt orthonormalisation) not specified.
  Using default value basis_acc =  0.1000000E-03.
  Species O                   : Using default innermost maximum threshold i_radial=  2 for radial functions.
  Species O                   : Default cutoff onset for free atom density etc. : 0.35000000E+01 AA.
  Species O                   : Basic radial grid will be enhanced according to radial_multiplier =   1, to contain    36 grid points.
 
  Finished reading input file 'control.in'.
 
------------------------------------------------------------


------------------------------------------------------------
          Reading geometry description geometry.in.
------------------------------------------------------------
  | The smallest distance between any two atoms is         2.07891019 AA.
  | The first atom of this pair is atom number                      1 .
  | The second atom of this pair is atom number                     3 .
  | Wigner-Seitz cell of the first atom image           0     0     0 .
  | (The Wigner-Seitz cell of the second atom is 0 0 0  by definition.)

  Symmetry information by spglib:
  | Precision set to  0.1E-04
  | Number of Operations  : 16
  | Space group           : 137
  | International         : P4_2/nmc  3
  | Schoenflies           : D4h^15
  Input structure read successfully.
  The structure contains        6 atoms,  and a total of        112.000 electrons.

  Input geometry:
  | Unit cell:
  |        2.53788614        2.53788614        0.00000000
  |       -2.53788614        2.53788614        0.00000000
  |        0.00000000        0.00000000        5.18678806
  | Atomic structure:
  |       Atom                x [A]            y [A]            z [A]
  |    1: Species Zr            0.00000000        0.00000000        0.00000000
  |    2: Species Zr            0.00000000        2.53788614        2.59339403
  |    3: Species O             1.26894307        1.26894307        1.04949252
  |    4: Species O             1.26894307        1.26894307        3.64288655
  |    5: Species O            -1.26894307        1.26894307        1.54390151
  |    6: Species O            -1.26894307        1.26894307        4.13729554

  Lattice parameters for 3D lattice (in Angstroms) :     3.589113    3.589113    5.186788
  Angle(s) between unit vectors (in degrees)       :    90.000000   90.000000   90.000000


  Quantities derived from the lattice vectors:
  | Reciprocal lattice vector 1:  1.237878  1.237878  0.000000
  | Reciprocal lattice vector 2: -1.237878  1.237878  0.000000
  | Reciprocal lattice vector 3:  0.000000  0.000000  1.211383
  | Unit cell volume                               :   0.668148E+02  A^3

 
  Finished reading input file 'control.in'.
 

------------------------------------------------------------
          Reading geometry description geometry.in.
------------------------------------------------------------
 
  Consistency checks for stacksize environment parameter are next.
 
  | Maximum stacksize for task 0: unlimited
  | Maximum stacksize for task 1: unlimited
  | Maximum stacksize for task 2: unlimited
  | Maximum stacksize for task 3: unlimited
  | Maximum stacksize for task 4: unlimited
  | Maximum stacksize for task 5: unlimited
  | Maximum stacksize for task 6: unlimited
  | Maximum stacksize for task 7: unlimited
  | Maximum stacksize for task 8: unlimited
  | Maximum stacksize for task 9: unlimited
  | Maximum stacksize for task 10: unlimited
  | Maximum stacksize for task 11: unlimited
  | Maximum stacksize for task 12: unlimited
  | Maximum stacksize for task 13: unlimited
  | Maximum stacksize for task 14: unlimited
  | Maximum stacksize for task 15: unlimited
  | Maximum stacksize for task 16: unlimited
  | Maximum stacksize for task 17: unlimited
  | Maximum stacksize for task 18: unlimited
  | Maximum stacksize for task 19: unlimited
  | Maximum stacksize for task 20: unlimited
  | Maximum stacksize for task 21: unlimited
  | Maximum stacksize for task 22: unlimited
  | Maximum stacksize for task 23: unlimited
  | Maximum stacksize for task 24: unlimited
  | Maximum stacksize for task 25: unlimited
  | Maximum stacksize for task 26: unlimited
  | Maximum stacksize for task 27: unlimited
  | Maximum stacksize for task 28: unlimited
  | Maximum stacksize for task 29: unlimited
  | Maximum stacksize for task 30: unlimited
  | Maximum stacksize for task 31: unlimited
  | Maximum stacksize for task 32: unlimited
  | Maximum stacksize for task 33: unlimited
  | Maximum stacksize for task 34: unlimited
  | Maximum stacksize for task 35: unlimited
  | Maximum stacksize for task 36: unlimited
  | Maximum stacksize for task 37: unlimited
  | Maximum stacksize for task 38: unlimited
  | Maximum stacksize for task 39: unlimited
  | Maximum stacksize for task 40: unlimited
  | Maximum stacksize for task 41: unlimited
  | Maximum stacksize for task 42: unlimited
  | Maximum stacksize for task 43: unlimited
  | Maximum stacksize for task 44: unlimited
  | Maximum stacksize for task 45: unlimited
  | Maximum stacksize for task 46: unlimited
  | Maximum stacksize for task 47: unlimited
  | Maximum stacksize for task 48: unlimited
  | Maximum stacksize for task 49: unlimited
  | Maximum stacksize for task 50: unlimited
  | Maximum stacksize for task 51: unlimited
  | Maximum stacksize for task 52: unlimited
  | Maximum stacksize for task 53: unlimited
  | Maximum stacksize for task 54: unlimited
  | Maximum stacksize for task 55: unlimited
  | Maximum stacksize for task 56: unlimited
  | Maximum stacksize for task 57: unlimited
  | Maximum stacksize for task 58: unlimited
  | Maximum stacksize for task 59: unlimited
  | Maximum stacksize for task 60: unlimited
  | Maximum stacksize for task 61: unlimited
  | Maximum stacksize for task 62: unlimited
  | Maximum stacksize for task 63: unlimited
  | Maximum stacksize for task 64: unlimited
  | Maximum stacksize for task 65: unlimited
  | Maximum stacksize for task 66: unlimited
  | Maximum stacksize for task 67: unlimited
  | Maximum stacksize for task 68: unlimited
  | Maximum stacksize for task 69: unlimited
  | Maximum stacksize for task 70: unlimited
  | Maximum stacksize for task 71: unlimited
  | Maximum stacksize for task 72: unlimited
  | Maximum stacksize for task 73: unlimited
  | Maximum stacksize for task 74: unlimited
  | Maximum stacksize for task 75: unlimited
  | Maximum stacksize for task 76: unlimited
  | Maximum stacksize for task 77: unlimited
  | Maximum stacksize for task 78: unlimited
  | Maximum stacksize for task 79: unlimited
  | Maximum stacksize for task 80: unlimited
  | Maximum stacksize for task 81: unlimited
  | Maximum stacksize for task 82: unlimited
  | Maximum stacksize for task 83: unlimited
  | Maximum stacksize for task 84: unlimited
  | Maximum stacksize for task 85: unlimited
  | Maximum stacksize for task 86: unlimited
  | Maximum stacksize for task 87: unlimited
  | Maximum stacksize for task 88: unlimited
  | Maximum stacksize for task 89: unlimited
  | Maximum stacksize for task 90: unlimited
  | Maximum stacksize for task 91: unlimited
  | Maximum stacksize for task 92: unlimited
  | Maximum stacksize for task 93: unlimited
  | Maximum stacksize for task 94: unlimited
  | Maximum stacksize for task 95: unlimited
  | Current stacksize for task 0: unlimited
  | Current stacksize for task 1: unlimited
  | Current stacksize for task 2: unlimited
  | Current stacksize for task 3: unlimited
  | Current stacksize for task 4: unlimited
  | Current stacksize for task 5: unlimited
  | Current stacksize for task 6: unlimited
  | Current stacksize for task 7: unlimited
  | Current stacksize for task 8: unlimited
  | Current stacksize for task 9: unlimited
  | Current stacksize for task 10: unlimited
  | Current stacksize for task 11: unlimited
  | Current stacksize for task 12: unlimited
  | Current stacksize for task 13: unlimited
  | Current stacksize for task 14: unlimited
  | Current stacksize for task 15: unlimited
  | Current stacksize for task 16: unlimited
  | Current stacksize for task 17: unlimited
  | Current stacksize for task 18: unlimited
  | Current stacksize for task 19: unlimited
  | Current stacksize for task 20: unlimited
  | Current stacksize for task 21: unlimited
  | Current stacksize for task 22: unlimited
  | Current stacksize for task 23: unlimited
  | Current stacksize for task 24: unlimited
  | Current stacksize for task 25: unlimited
  | Current stacksize for task 26: unlimited
  | Current stacksize for task 27: unlimited
  | Current stacksize for task 28: unlimited
  | Current stacksize for task 29: unlimited
  | Current stacksize for task 30: unlimited
  | Current stacksize for task 31: unlimited
  | Current stacksize for task 32: unlimited
  | Current stacksize for task 33: unlimited
  | Current stacksize for task 34: unlimited
  | Current stacksize for task 35: unlimited
  | Current stacksize for task 36: unlimited
  | Current stacksize for task 37: unlimited
  | Current stacksize for task 38: unlimited
  | Current stacksize for task 39: unlimited
  | Current stacksize for task 40: unlimited
  | Current stacksize for task 41: unlimited
  | Current stacksize for task 42: unlimited
  | Current stacksize for task 43: unlimited
  | Current stacksize for task 44: unlimited
  | Current stacksize for task 45: unlimited
  | Current stacksize for task 46: unlimited
  | Current stacksize for task 47: unlimited
  | Current stacksize for task 48: unlimited
  | Current stacksize for task 49: unlimited
  | Current stacksize for task 50: unlimited
  | Current stacksize for task 51: unlimited
  | Current stacksize for task 52: unlimited
  | Current stacksize for task 53: unlimited
  | Current stacksize for task 54: unlimited
  | Current stacksize for task 55: unlimited
  | Current stacksize for task 56: unlimited
  | Current stacksize for task 57: unlimited
  | Current stacksize for task 58: unlimited
  | Current stacksize for task 59: unlimited
  | Current stacksize for task 60: unlimited
  | Current stacksize for task 61: unlimited
  | Current stacksize for task 62: unlimited
  | Current stacksize for task 63: unlimited
  | Current stacksize for task 64: unlimited
  | Current stacksize for task 65: unlimited
  | Current stacksize for task 66: unlimited
  | Current stacksize for task 67: unlimited
  | Current stacksize for task 68: unlimited
  | Current stacksize for task 69: unlimited
  | Current stacksize for task 70: unlimited
  | Current stacksize for task 71: unlimited
  | Current stacksize for task 72: unlimited
  | Current stacksize for task 73: unlimited
  | Current stacksize for task 74: unlimited
  | Current stacksize for task 75: unlimited
  | Current stacksize for task 76: unlimited
  | Current stacksize for task 77: unlimited
  | Current stacksize for task 78: unlimited
  | Current stacksize for task 79: unlimited
  | Current stacksize for task 80: unlimited
  | Current stacksize for task 81: unlimited
  | Current stacksize for task 82: unlimited
  | Current stacksize for task 83: unlimited
  | Current stacksize for task 84: unlimited
  | Current stacksize for task 85: unlimited
  | Current stacksize for task 86: unlimited
  | Current stacksize for task 87: unlimited
  | Current stacksize for task 88: unlimited
  | Current stacksize for task 89: unlimited
  | Current stacksize for task 90: unlimited
  | Current stacksize for task 91: unlimited
  | Current stacksize for task 92: unlimited
  | Current stacksize for task 93: unlimited
  | Current stacksize for task 94: unlimited
  | Current stacksize for task 95: unlimited
 
  Consistency checks for the contents of control.in are next.
 
  MPI_IN_PLACE appears to work with this MPI implementation.
  | Keeping use_mpi_in_place .true. (see manual).
  Target number of points in a grid batch is not set. Defaulting to  100
  Method for grid partitioning is not set. Defaulting to parallel hash+maxmin partitioning.
  Batch size limit is not set. Defaulting to    200
  By default, will store active basis functions for each batch.
  If in need of memory, prune_basis_once .false. can be used to disable this option.
  communication_type for Hartree potential was not specified.
  Defaulting to calc_hartree .
  Pulay mixer: Number of initial linear mixing iterations not set.
  Defaulting to    0 iterations.
  Work space size for distributed Hartree potential not set.
  Defaulting to   0.200000E+03 MB.
  Algorithm-dependent basis array size parameters:
  | n_max_pulay                         :       10
  Maximum number of self-consistency iterations not provided.
  Presetting  1000 iterations.
  Presetting      1001 iterations before the initial mixing cycle
  is restarted anyway using the sc_init_iter criterion / keyword.
  Presetting a factor      1.000 between actual scf density residual
  and density convergence criterion sc_accuracy_rho below which sc_init_iter
  takes no effect.
  Geometry relaxation not requested: no relaxation will be performed.
  Analytical stress will be computed.
  Analytical stress calculation: Only the upper triangle is calculated.
                                 Final output is symmetrized.
  Analytical stress calculation: scf convergence accuracy of stress not set.
                                 Analytical stress self-consistency will not be checked explicitly.
                                 Be sure to set other criteria like sc_accuracy_rho tight enough.
  Handling of forces: Unphysical translation and rotation will be removed from forces.
  No accuracy limit for integral partition fn. given. Defaulting to  0.1000E-14.
  No threshold value for u(r) in integrations given. Defaulting to  0.1000E-05.
  No accuracy for occupation numbers given. Defaulting to  0.1000E-12.
  No threshold value for occupation numbers given. Defaulting to  0.0000E+00.
  No accuracy for fermi level given. Defaulting to  0.1000E-19.
  Maximum # of iterations to find E_F not set. Defaulting to  200.
  Preferred method for the eigenvalue solver ('KS_method') not specified in 'control.in'.
  Calling BLACS routine to test compilation state
  Since ScaLAPACK support is enabled, defaulting to ELPA (via ELSI).
  Will not use alltoall communication since running on < 1024 CPUs.
  Threshold for basis singularities not set.
  Default threshold for basis singularities:  0.1000E-04
  partition_type (choice of integration weights) for integrals was not specified.
  | Using a version of the partition function of Stratmann and coworkers ('stratmann_sparse').
  | At each grid point, the set of atoms used to build the partition table is smoothly restricted to
  | only those atoms whose free-atom density would be non-zero at that grid point.
  Partitioning for Hartree potential was not defined. Using partition_type for integrals.
  | Adjusted default value of keyword multip_moments_threshold to:       0.10000000E-11
  | This value may affect high angular momentum components of the Hartree potential in periodic systems.
  Spin handling was not defined in control.in. Defaulting to unpolarized case.
  Angular momentum expansion for Kerker preconditioner not set explicitly.
  | Using default value of   0
  No explicit requirement for turning off preconditioner.
  | By default, it will be turned off when the charge convergence reaches
  | sc_accuracy_rho  =   0.100000E-05
  | sc_accuracy_eev  =   0.100000E-03
  | sc_accuracy_etot =   0.100000E-05
  No special mixing parameter while Kerker preconditioner is on.
  Using default: charge_mix_param =     0.1500.
  No q(lm)/r^(l+1) cutoff set for long-range Hartree potential.
  | Using default value of  0.100000E-09 .
  | Verify using the multipole_threshold keyword.
  Defaulting to new monopole extrapolation.
  Density update method: automatic selection selected.
  Using density matrix based charge density update.
  Using density matrix based charge density update.
  Using packed matrix style: index .
  Defaulting to use time-reversal symmetry for k-point grid.
 
  Consistency checks for the contents of geometry.in are next.
 

  Range separation radius for Ewald summation (hartree_convergence_parameter):      3.10855733 bohr.
  Number of empty states per atom not set in control.in - providing a guess from actual geometry.
  | Total number of empty states used during s.c.f. cycle:       23
  If you use a very high smearing, use empty_states (per atom!) in control.in to increase this value.

  Structure-dependent array size parameters: 
  | Maximum number of distinct radial functions  :       21
  | Maximum number of basis functions            :      164
  | Number of Kohn-Sham states (occupied + empty):       79
------------------------------------------------------------

************************** W A R N I N G *******************************
* You are using the PIMD wrapper. Specifications and positions         *
* in geometry.in will be IGNORED - all is received from the wrapper.   *
* Please make sure species are declared in the same order in           *
* geometry.in and wrapper input.                                       *
************************************************************************


------------------------------------------------------------
          Preparing all fixed parts of the calculation.
------------------------------------------------------------
  Determining machine precision:
    2.225073858507201E-308
  Setting up grids for atomic and cluster calculations.

  Creating wave function, potential, and density for free atoms.

  Species: Zr

  List of occupied orbitals and eigenvalues:
    n    l              occ      energy [Ha]    energy [eV]
    1    0           2.0000      -668.706582    -18196.4319
    2    0           2.0000       -91.061038     -2477.8969
    3    0           2.0000       -14.857587      -404.2955
    4    0           2.0000        -1.979040       -53.8524
    5    0           2.0000        -0.143402        -3.9022
    2    1           6.0000       -81.178513     -2208.9797
    3    1           6.0000       -11.652124      -317.0704
    4    1           6.0000        -1.169302       -31.8183
    3    2          10.0000        -6.398530      -174.1129
    4    2           2.0000        -0.111946        -3.0462


  Species: O

  List of occupied orbitals and eigenvalues:
    n    l              occ      energy [Ha]    energy [eV]
    1    0           2.0000       -18.926989      -515.0296
    2    0           2.0000        -0.880247       -23.9527
    2    1           4.0000        -0.331514        -9.0210


  Adding cutoff potential to free-atom effective potential.
  Creating fixed part of basis set: Ionic, confined, hydrogenic.
 
  Zr                   ion:

  List of free ionic orbitals and eigenvalues:
    n    l      energy [Ha]    energy [eV]
    1    0      -669.421026    -18215.8729
    2    0       -91.769634     -2497.1788
    3    0       -15.560469      -423.4219
    4    0        -2.663352       -72.4735
    5    0        -0.640863       -17.4388
    2    1       -81.886574     -2228.2470
    3    1       -12.354892      -336.1937
    4    1        -1.844122       -50.1811
    3    2        -7.101714      -193.2475
    4    2        -0.726930       -19.7808


  List of ionic basis orbitals and eigenvalues:
    n    l      energy [Ha]    energy [eV]    outer radius [A]
    4    2        -0.726889       -19.7797       4.486525
    5    1        -0.465952       -12.6792       4.597573
    5    0        -0.640012       -17.4156       4.597573

 
  Zr                   hydrogenic:
 
  List of hydrogenic basis orbitals: 
    n    l      effective z      eigenvalue [eV]  inner max. [A]     outer max. [A]     outer radius [A]   
    4    3         7.200000       -44.0814           1.169212           1.169212           4.541709
 
 
  O                    hydrogenic:
 
  List of hydrogenic basis orbitals: 
    n    l      effective z      eigenvalue [eV]  inner max. [A]     outer max. [A]     outer radius [A]   
    2    1         1.800000       -10.9749           1.164242           1.164242           4.578029
    3    2         7.600000       -87.3180           0.624125           0.624125           3.251020
    3    0         6.400000       -61.9207           0.061167           1.081902           4.001998
    4    3        11.600000      -114.4236           0.731631           0.731631           3.291008
 
  Creating atomic-like basis functions for current effective potential.

  Species Zr                  :

  List of atomic basis orbitals and eigenvalues:
    n    l      energy [Ha]    energy [eV]    outer radius [A]
    1    0      -668.706582    -18196.4319       0.259930
    2    0       -91.061038     -2477.8969       0.725827
    3    0       -14.857587      -404.2955       1.771771
    4    0        -1.979040       -53.8524       4.169218
    5    0        -0.143402        -3.9022       4.597573
    2    1       -81.178513     -2208.9797       0.743792
    3    1       -11.652124      -317.0704       1.930067
    4    1        -1.169302       -31.8183       4.378160
    3    2        -6.398530      -174.1129       2.434714
    4    2        -0.111946        -3.0462       4.597573


  Species O                   :

  List of atomic basis orbitals and eigenvalues:
    n    l      energy [Ha]    energy [eV]    outer radius [A]
    1    0       -18.926989      -515.0296       1.415765
    2    0        -0.880247       -23.9527       4.413171
    2    1        -0.331514        -9.0210       4.522403

  Assembling full basis from fixed parts.
  | Species Zr :   atomic orbital   1 s accepted.
  | Species Zr :   atomic orbital   2 s accepted.
  | Species Zr :   atomic orbital   3 s accepted.
  | Species Zr :   atomic orbital   4 s accepted.
  | Species Zr :   atomic orbital   5 s accepted.
  | Species Zr :    ionic orbital   5 s accepted.
  | Species Zr :   atomic orbital   2 p accepted.
  | Species Zr :   atomic orbital   3 p accepted.
  | Species Zr :   atomic orbital   4 p accepted.
  | Species Zr :    ionic orbital   5 p accepted.
  | Species Zr :   atomic orbital   3 d accepted.
  | Species Zr :    ionic orbital   4 d accepted.
  | Species Zr :   atomic orbital   4 d accepted.
  | Species Zr :    hydro orbital   4 f accepted.
  | Species O :   atomic orbital   1 s accepted.
  | Species O :    hydro orbital   3 s accepted.
  | Species O :   atomic orbital   2 s accepted.
  | Species O :   atomic orbital   2 p accepted.
  | Species O :    hydro orbital   2 p accepted.
  | Species O :    hydro orbital   3 d accepted.
  | Species O :    hydro orbital   4 f accepted.
 
  Basis size parameters after reduction:
  | Total number of radial functions:       21
  | Total number of basis functions :      164
 
  Per-task memory consumption for arrays in subroutine allocate_ext:
  |           7.703584MB.
  Testing on-site integration grid accuracy.
  |  Species  Function  <phi|h_atom|phi> (log., in eV)  <phi|h_atom|phi> (rad., in eV)
           1        1             -18196.4319289647             -18196.4037056302
           1        2              -2477.8969157874              -2477.8965190963
           1        3               -404.2955207273               -404.2955072396
           1        4                -53.8524207606                -53.8524197465
           1        5                 -3.9325346527                 -3.9640981539 ***
           1        6                  7.4650119531                  7.2487021896 ***
           1        7              -2208.9797384608              -2208.9797360982
           1        8               -317.0704188561               -317.0704172349
           1        9                -31.8183401014                -31.8183399499
           1       10                  0.1214541437                  0.0960014764
           1       11               -174.1128704819               -174.1128700309
           1       12                 -2.6836904974                 -2.6839150058
           1       13                  6.1928909813                  6.0928612325 ***
           1       14                 17.1803315707                 17.1799919815
           2       15               -515.0295626295               -515.0294562738
           2       16                 15.1698434419                 15.1699322204
           2       17                -21.6038822678                -21.6039118105
           2       18                 -9.0211123393                 -9.0212703513
           2       19                  8.3047696391                  8.2854840999
           2       20                 45.8428042125                 45.8427461222
           2       21                 85.4226884770                 85.4226362083
 * Note: Onsite integrals marked "***" above are less accurate than
 * onsite_accuracy_threshold =    0.03000 eV. Usually, this is harmless.
 * However, one integral did have a negative value. This integral could be important.
 * When in doubt, tighten the "radial" and/or "radial_multiplier" flags to check.

  Preparing densities etc. for the partition functions (integrals / Hartree potential).

  Preparations completed.
  max(cpu_time)          :      0.310 s.
  Wall clock time (cpu1) :      0.613 s.
------------------------------------------------------------

************************** W A R N I N G *******************************
* Skipping the SCF initialization for now - done inside wrapper      *
************************************************************************

  @ DRIVER MODE: Connecting to host:port localhost       10011
  @ DRIVER MODE: Message from server: STATUS      
  @ DRIVER MODE: Message from server: POSDATA     
  @ DRIVER MODE: Received positions 

------------------------------------------------------------
          Begin self-consistency loop: Initialization.

          Date     :  20210218, Time     :  120121.703
------------------------------------------------------------

  Initializing index lists of integration centers etc. from given atomic structure:
  Mapping all atomic coordinates to central unit cell.

  Initializing the k-points
  Using symmetry for reducing the k-points
  | k-points reduced from:        8 to        8
  | Number of k-points                             :         8
  The eigenvectors in the calculations are REAL.
  | Number of basis functions in the Hamiltonian integrals :      3070
  | Number of basis functions in a single unit cell        :       164
  | Number of centers in hartree potential         :      1114
  | Number of centers in hartree multipole         :       692
  | Number of centers in electron density summation:       498
  | Number of centers in basis integrals           :       570
  | Number of centers in integrals                 :       175
  | Number of centers in hamiltonian               :       501
  | Consuming         16 KiB for k_phase.
  | Number of super-cells (origin) [n_cells]                     :         847
  | Number of super-cells (after PM_index) [n_cells]             :         134
  | Number of super-cells in hamiltonian [n_cells_in_hamiltonian]:         134
  | Size of matrix packed + index [n_hamiltonian_matrix_size] :      395609
  | Estimated reciprocal-space cutoff momentum G_max:         3.03525162 bohr^-1 .
  | Reciprocal lattice points for long-range Hartree potential:     220
  Using simple linear distribution as default method for k-point parallelism.
  * Using 96 tasks for Scalapack Eigenvalue solver.
  Detailed listing of tasks and assigned k-points:
   Task     0 k-point     1 on ravc4151
   Task     1 k-point     1 on ravc4151
   Task     2 k-point     1 on ravc4151
   Task     3 k-point     1 on ravc4151
   Task     4 k-point     1 on ravc4151
   Task     5 k-point     1 on ravc4151
   Task     6 k-point     1 on ravc4151
   Task     7 k-point     1 on ravc4151
   Task     8 k-point     1 on ravc4151
   Task     9 k-point     1 on ravc4151
   Task    10 k-point     1 on ravc4151
   Task    11 k-point     1 on ravc4151
   Task    12 k-point     2 on ravc4151
   Task    13 k-point     2 on ravc4151
   Task    14 k-point     2 on ravc4151
   Task    15 k-point     2 on ravc4151
   Task    16 k-point     2 on ravc4151
   Task    17 k-point     2 on ravc4151
   Task    18 k-point     2 on ravc4151
   Task    19 k-point     2 on ravc4151
   Task    20 k-point     2 on ravc4151
   Task    21 k-point     2 on ravc4151
   Task    22 k-point     2 on ravc4151
   Task    23 k-point     2 on ravc4151
   Task    24 k-point     3 on ravc4151
   Task    25 k-point     3 on ravc4151
   Task    26 k-point     3 on ravc4151
   Task    27 k-point     3 on ravc4151
   Task    28 k-point     3 on ravc4151
   Task    29 k-point     3 on ravc4151
   Task    30 k-point     3 on ravc4151
   Task    31 k-point     3 on ravc4151
   Task    32 k-point     3 on ravc4151
   Task    33 k-point     3 on ravc4151
   Task    34 k-point     3 on ravc4151
   Task    35 k-point     3 on ravc4151
   Task    36 k-point     4 on ravc4151
   Task    37 k-point     4 on ravc4151
   Task    38 k-point     4 on ravc4151
   Task    39 k-point     4 on ravc4151
   Task    40 k-point     4 on ravc4151
   Task    41 k-point     4 on ravc4151
   Task    42 k-point     4 on ravc4151
   Task    43 k-point     4 on ravc4151
   Task    44 k-point     4 on ravc4151
   Task    45 k-point     4 on ravc4151
   Task    46 k-point     4 on ravc4151
   Task    47 k-point     4 on ravc4151
   Task    48 k-point     5 on ravc4151
   Task    49 k-point     5 on ravc4151
   Task    50 k-point     5 on ravc4151
   Task    51 k-point     5 on ravc4151
   Task    52 k-point     5 on ravc4151
   Task    53 k-point     5 on ravc4151
   Task    54 k-point     5 on ravc4151
   Task    55 k-point     5 on ravc4151
   Task    56 k-point     5 on ravc4151
   Task    57 k-point     5 on ravc4151
   Task    58 k-point     5 on ravc4151
   Task    59 k-point     5 on ravc4151
   Task    60 k-point     6 on ravc4151
   Task    61 k-point     6 on ravc4151
   Task    62 k-point     6 on ravc4151
   Task    63 k-point     6 on ravc4151
   Task    64 k-point     6 on ravc4151
   Task    65 k-point     6 on ravc4151
   Task    66 k-point     6 on ravc4151
   Task    67 k-point     6 on ravc4151
   Task    68 k-point     6 on ravc4151
   Task    69 k-point     6 on ravc4151
   Task    70 k-point     6 on ravc4151
   Task    71 k-point     6 on ravc4151
   Task    72 k-point     7 on ravc4151
   Task    73 k-point     7 on ravc4151
   Task    74 k-point     7 on ravc4151
   Task    75 k-point     7 on ravc4151
   Task    76 k-point     7 on ravc4151
   Task    77 k-point     7 on ravc4151
   Task    78 k-point     7 on ravc4151
   Task    79 k-point     7 on ravc4151
   Task    80 k-point     7 on ravc4151
   Task    81 k-point     7 on ravc4151
   Task    82 k-point     7 on ravc4151
   Task    83 k-point     7 on ravc4151
   Task    84 k-point     8 on ravc4151
   Task    85 k-point     8 on ravc4151
   Task    86 k-point     8 on ravc4151
   Task    87 k-point     8 on ravc4151
   Task    88 k-point     8 on ravc4151
   Task    89 k-point     8 on ravc4151
   Task    90 k-point     8 on ravc4151
   Task    91 k-point     8 on ravc4151
   Task    92 k-point     8 on ravc4151
   Task    93 k-point     8 on ravc4151
   Task    94 k-point     8 on ravc4151
   Task    95 k-point     8 on ravc4151
  K-point:     1 Tasks:    12 split into      4 X      3 BLACS grid
  Calculating block size based on n_basis =          164  max_nprow =            4  max_npcol =            3
  ScaLAPACK block size set to:           16
  Allocating        0.023 MB for ovlp
  Allocating        0.023 MB for ham
  Allocating        0.023 MB for eigenvec
  Required Scalapack workspace - INTEGER:            1  REAL:             1
  Partitioning the integration grid into batches with parallel hashing+maxmin method.
  | Number of batches:      572
  | Maximal batch size:     113
  | Minimal batch size:      52
  | Average batch size:      69.678
  | Standard deviation of batch sizes:      14.343

  Integration load balanced across    96 MPI tasks.
  Work distribution over tasks is as follows:
  Task     0 has        420 integration points.
  Task     1 has        406 integration points.
  Task     2 has        454 integration points.
  Task     3 has        388 integration points.
  Task     4 has        392 integration points.
  Task     5 has        409 integration points.
  Task     6 has        426 integration points.
  Task     7 has        438 integration points.
  Task     8 has        425 integration points.
  Task     9 has        434 integration points.
  Task    10 has        441 integration points.
  Task    11 has        402 integration points.
  Task    12 has        387 integration points.
  Task    13 has        398 integration points.
  Task    14 has        387 integration points.
  Task    15 has        460 integration points.
  Task    16 has        405 integration points.
  Task    17 has        423 integration points.
  Task    18 has        426 integration points.
  Task    19 has        462 integration points.
  Task    20 has        376 integration points.
  Task    21 has        416 integration points.
  Task    22 has        386 integration points.
  Task    23 has        425 integration points.
  Task    24 has        425 integration points.
  Task    25 has        449 integration points.
  Task    26 has        436 integration points.
  Task    27 has        456 integration points.
  Task    28 has        396 integration points.
  Task    29 has        391 integration points.
  Task    30 has        418 integration points.
  Task    31 has        414 integration points.
  Task    32 has        406 integration points.
  Task    33 has        429 integration points.
  Task    34 has        409 integration points.
  Task    35 has        382 integration points.
  Task    36 has        398 integration points.
  Task    37 has        402 integration points.
  Task    38 has        459 integration points.
  Task    39 has        393 integration points.
  Task    40 has        405 integration points.
  Task    41 has        407 integration points.
  Task    42 has        413 integration points.
  Task    43 has        388 integration points.
  Task    44 has        379 integration points.
  Task    45 has        427 integration points.
  Task    46 has        438 integration points.
  Task    47 has        428 integration points.
  Task    48 has        423 integration points.
  Task    49 has        431 integration points.
  Task    50 has        383 integration points.
  Task    51 has        376 integration points.
  Task    52 has        435 integration points.
  Task    53 has        435 integration points.
  Task    54 has        422 integration points.
  Task    55 has        459 integration points.
  Task    56 has        422 integration points.
  Task    57 has        400 integration points.
  Task    58 has        428 integration points.
  Task    59 has        422 integration points.
  Task    60 has        405 integration points.
  Task    61 has        425 integration points.
  Task    62 has        429 integration points.
  Task    63 has        384 integration points.
  Task    64 has        433 integration points.
  Task    65 has        389 integration points.
  Task    66 has        436 integration points.
  Task    67 has        393 integration points.
  Task    68 has        402 integration points.
  Task    69 has        396 integration points.
  Task    70 has        407 integration points.
  Task    71 has        435 integration points.
  Task    72 has        454 integration points.
  Task    73 has        377 integration points.
  Task    74 has        416 integration points.
  Task    75 has        398 integration points.
  Task    76 has        410 integration points.
  Task    77 has        418 integration points.
  Task    78 has        438 integration points.
  Task    79 has        424 integration points.
  Task    80 has        432 integration points.
  Task    81 has        394 integration points.
  Task    82 has        432 integration points.
  Task    83 has        388 integration points.
  Task    84 has        434 integration points.
  Task    85 has        431 integration points.
  Task    86 has        383 integration points.
  Task    87 has        419 integration points.
  Task    88 has        396 integration points.
  Task    89 has        438 integration points.
  Task    90 has        426 integration points.
  Task    91 has        420 integration points.
  Task    92 has        430 integration points.
  Task    93 has        386 integration points.
  Task    94 has        400 integration points.
  Task    95 has        408 integration points.
  Initializing partition tables, free-atom densities, potentials, etc. across the integration grid (initialize_grid_storage).
  | initialize_grid_storage: Actual outermost partition radius vs. multipole_radius_free
  | (-- VB: in principle, multipole_radius_free should be larger, hence this output)
  | Species        1: Confinement radius =              4.999999999999999 AA, multipole_radius_free =              5.008334078144968 AA.
  | Species        1: outer_partition_radius set to              5.008334078144968 AA .
  | Species        2: Confinement radius =              4.999999999999999 AA, multipole_radius_free =              5.048384829883283 AA.
  | Species        2: outer_partition_radius set to              5.048384829883283 AA .
  | The sparse table of interatomic distances needs       1406.12 kbyte instead of      2599.20 kbyte of memory.
  | Net number of integration points:    39856
  | of which are non-zero points    :    32860
  | Numerical average free-atom electrostatic potential    :    -21.40512143 eV
  Obtaining max. number of non-zero basis functions in each batch (get_n_compute_maxes).
  | Maximal number of non-zero basis functions:      868 in task     0
  | Maximal number of non-zero basis functions:      917 in task     1
  | Maximal number of non-zero basis functions:      900 in task     2
  | Maximal number of non-zero basis functions:      903 in task     3
  | Maximal number of non-zero basis functions:      907 in task     4
  | Maximal number of non-zero basis functions:      892 in task     5
  | Maximal number of non-zero basis functions:      911 in task     6
  | Maximal number of non-zero basis functions:      902 in task     7
  | Maximal number of non-zero basis functions:      918 in task     8
  | Maximal number of non-zero basis functions:      885 in task     9
  | Maximal number of non-zero basis functions:      900 in task    10
  | Maximal number of non-zero basis functions:      900 in task    11
  | Maximal number of non-zero basis functions:      900 in task    12
  | Maximal number of non-zero basis functions:      879 in task    13
  | Maximal number of non-zero basis functions:      904 in task    14
  | Maximal number of non-zero basis functions:      893 in task    15
  | Maximal number of non-zero basis functions:      892 in task    16
  | Maximal number of non-zero basis functions:      892 in task    17
  | Maximal number of non-zero basis functions:      887 in task    18
  | Maximal number of non-zero basis functions:      884 in task    19
  | Maximal number of non-zero basis functions:      891 in task    20
  | Maximal number of non-zero basis functions:      872 in task    21
  | Maximal number of non-zero basis functions:      929 in task    22
  | Maximal number of non-zero basis functions:      914 in task    23
  | Maximal number of non-zero basis functions:      933 in task    24
  | Maximal number of non-zero basis functions:      857 in task    25
  | Maximal number of non-zero basis functions:      877 in task    26
  | Maximal number of non-zero basis functions:      944 in task    27
  | Maximal number of non-zero basis functions:      867 in task    28
  | Maximal number of non-zero basis functions:      922 in task    29
  | Maximal number of non-zero basis functions:      900 in task    30
  | Maximal number of non-zero basis functions:      916 in task    31
  | Maximal number of non-zero basis functions:      869 in task    32
  | Maximal number of non-zero basis functions:      882 in task    33
  | Maximal number of non-zero basis functions:      951 in task    34
  | Maximal number of non-zero basis functions:      865 in task    35
  | Maximal number of non-zero basis functions:      947 in task    36
  | Maximal number of non-zero basis functions:      897 in task    37
  | Maximal number of non-zero basis functions:      913 in task    38
  | Maximal number of non-zero basis functions:      910 in task    39
  | Maximal number of non-zero basis functions:      919 in task    40
  | Maximal number of non-zero basis functions:      870 in task    41
  | Maximal number of non-zero basis functions:      913 in task    42
  | Maximal number of non-zero basis functions:      893 in task    43
  | Maximal number of non-zero basis functions:      852 in task    44
  | Maximal number of non-zero basis functions:      874 in task    45
  | Maximal number of non-zero basis functions:      890 in task    46
  | Maximal number of non-zero basis functions:      893 in task    47
  | Maximal number of non-zero basis functions:      885 in task    48
  | Maximal number of non-zero basis functions:      902 in task    49
  | Maximal number of non-zero basis functions:      926 in task    50
  | Maximal number of non-zero basis functions:      945 in task    51
  | Maximal number of non-zero basis functions:      916 in task    52
  | Maximal number of non-zero basis functions:      939 in task    53
  | Maximal number of non-zero basis functions:      875 in task    54
  | Maximal number of non-zero basis functions:      890 in task    55
  | Maximal number of non-zero basis functions:      859 in task    56
  | Maximal number of non-zero basis functions:      884 in task    57
  | Maximal number of non-zero basis functions:      888 in task    58
  | Maximal number of non-zero basis functions:      890 in task    59
  | Maximal number of non-zero basis functions:      916 in task    60
  | Maximal number of non-zero basis functions:      895 in task    61
  | Maximal number of non-zero basis functions:      907 in task    62
  | Maximal number of non-zero basis functions:      880 in task    63
  | Maximal number of non-zero basis functions:      869 in task    64
  | Maximal number of non-zero basis functions:      890 in task    65
  | Maximal number of non-zero basis functions:      861 in task    66
  | Maximal number of non-zero basis functions:      922 in task    67
  | Maximal number of non-zero basis functions:      912 in task    68
  | Maximal number of non-zero basis functions:      925 in task    69
  | Maximal number of non-zero basis functions:      938 in task    70
  | Maximal number of non-zero basis functions:      872 in task    71
  | Maximal number of non-zero basis functions:      935 in task    72
  | Maximal number of non-zero basis functions:      878 in task    73
  | Maximal number of non-zero basis functions:      919 in task    74
  | Maximal number of non-zero basis functions:      909 in task    75
  | Maximal number of non-zero basis functions:      879 in task    76
  | Maximal number of non-zero basis functions:      865 in task    77
  | Maximal number of non-zero basis functions:      887 in task    78
  | Maximal number of non-zero basis functions:      883 in task    79
  | Maximal number of non-zero basis functions:      902 in task    80
  | Maximal number of non-zero basis functions:      882 in task    81
  | Maximal number of non-zero basis functions:      893 in task    82
  | Maximal number of non-zero basis functions:      939 in task    83
  | Maximal number of non-zero basis functions:      897 in task    84
  | Maximal number of non-zero basis functions:      918 in task    85
  | Maximal number of non-zero basis functions:      951 in task    86
  | Maximal number of non-zero basis functions:      905 in task    87
  | Maximal number of non-zero basis functions:      927 in task    88
  | Maximal number of non-zero basis functions:      899 in task    89
  | Maximal number of non-zero basis functions:      931 in task    90
  | Maximal number of non-zero basis functions:      884 in task    91
  | Maximal number of non-zero basis functions:      959 in task    92
  | Maximal number of non-zero basis functions:      906 in task    93
  | Maximal number of non-zero basis functions:      893 in task    94
  | Maximal number of non-zero basis functions:      893 in task    95
  Allocating        0.099 MB for KS_eigenvector
  Integrating Hamiltonian matrix: batch-based integration.
  Time summed over all CPUs for integration: real work       19.611 s, elapsed       20.735 s
  Integrating overlap matrix.
  Time summed over all CPUs for integration: real work        7.461 s, elapsed        8.266 s
  Decreasing sparse matrix size:
  | Tolerance:  0.1000E-12
  Hamiltonian matrix
  | Array has   339769 nonzero elements out of   395609 elements
  | Sparsity factor is 0.141
  Overlap matrix
  | Array has   309864 nonzero elements out of   395609 elements
  | Sparsity factor is 0.217
  New size of hamiltonian matrix:      341553
  Deallocating overlap matrix.

  Updating Kohn-Sham eigenvalues and eigenvectors using ELSI and the ELPA eigensolver.

  Obtaining occupation numbers and chemical potential using ELSI.
  | Chemical potential (Fermi level):    -9.95842722 eV
  Writing Kohn-Sham eigenvalues.
  K-point:       1 at    0.000000    0.000000    0.000000 (in units of recip. lattice)

  State    Occupation    Eigenvalue [Ha]    Eigenvalue [eV]
      1       2.00000        -668.235570       -18183.61502
      2       2.00000        -668.235569       -18183.61502
      3       2.00000         -90.999328        -2476.21771
      4       2.00000         -90.999328        -2476.21771
      5       2.00000         -81.139851        -2207.92769
      6       2.00000         -81.139851        -2207.92769
      7       2.00000         -81.139851        -2207.92768
      8       2.00000         -81.139851        -2207.92768
      9       2.00000         -81.139843        -2207.92747
     10       2.00000         -81.139843        -2207.92747
     11       2.00000         -18.942235         -515.44444
     12       2.00000         -18.942234         -515.44442
     13       2.00000         -18.942234         -515.44442
     14       2.00000         -18.942234         -515.44442
     15       2.00000         -14.840044         -403.81813
     16       2.00000         -14.840043         -403.81811
     17       2.00000         -11.643651         -316.83986
     18       2.00000         -11.643651         -316.83986
     19       2.00000         -11.643650         -316.83985
     20       2.00000         -11.643650         -316.83985
     21       2.00000         -11.643562         -316.83744
     22       2.00000         -11.643562         -316.83743
     23       2.00000          -6.400148         -174.15688
     24       2.00000          -6.400147         -174.15687
     25       2.00000          -6.400081         -174.15508
     26       2.00000          -6.400081         -174.15508
     27       2.00000          -6.400073         -174.15486
     28       2.00000          -6.400073         -174.15486
     29       2.00000          -6.400073         -174.15485
     30       2.00000          -6.400073         -174.15485
     31       2.00000          -6.400004         -174.15298
     32       2.00000          -6.400004         -174.15297
     33       2.00000          -2.000743          -54.44300
     34       2.00000          -1.998009          -54.36860
     35       2.00000          -1.241629          -33.78644
     36       2.00000          -1.205427          -32.80134
     37       2.00000          -1.205427          -32.80134
     38       2.00000          -1.197699          -32.59104
     39       2.00000          -1.197699          -32.59104
     40       2.00000          -1.197300          -32.58018
     41       2.00000          -1.061584          -28.88716
     42       2.00000          -1.021526          -27.79712
     43       2.00000          -0.994182          -27.05307
     44       2.00000          -0.976765          -26.57913
     45       2.00000          -0.575699          -15.66556
     46       2.00000          -0.567414          -15.44012
     47       2.00000          -0.561253          -15.27248
     48       2.00000          -0.561253          -15.27248
     49       2.00000          -0.497992          -13.55105
     50       2.00000          -0.497992          -13.55105
     51       2.00000          -0.458167          -12.46735
     52       2.00000          -0.458167          -12.46735
     53       2.00000          -0.440204          -11.97855
     54       2.00000          -0.431890          -11.75233
     55       2.00000          -0.429911          -11.69848
     56       2.00000          -0.429911          -11.69848
     57       0.00000          -0.162357           -4.41797
     58       0.00000          -0.151385           -4.11939
     59       0.00000          -0.123031           -3.34786
     60       0.00000          -0.102922           -2.80065
     61       0.00000          -0.097529           -2.65389
     62       0.00000          -0.073726           -2.00620
     63       0.00000          -0.018943           -0.51547
     64       0.00000          -0.018943           -0.51547
     65       0.00000           0.026595            0.72368
     66       0.00000           0.026595            0.72368
     67       0.00000           0.037027            1.00757
     68       0.00000           0.164081            4.46486
     69       0.00000           0.176894            4.81353
     70       0.00000           0.246019            6.69450
     71       0.00000           0.268421            7.30410
     72       0.00000           0.268421            7.30410
     73       0.00000           0.281112            7.64945
     74       0.00000           0.310322            8.44428
     75       0.00000           0.310322            8.44428
     76       0.00000           0.389260           10.59230
     77       0.00000           0.490172           13.33825
     78       0.00000           0.542563           14.76390
     79       0.00000           0.613794           16.70219

  What follows are estimated values for band gap, HOMO, LUMO, etc.
  | They are estimated on a discrete k-point grid and not necessarily exact.
  | For converged numbers, create a DOS and/or band structure plot on a denser k-grid.

  Highest occupied state (VBM) at    -11.63351492 eV (relative to internal zero)
  | Occupation number:      2.00000000
  | K-point:       2 at    0.000000    0.000000    0.500000 (in units of recip. lattice)

  Lowest unoccupied state (CBM) at    -4.41797217 eV (relative to internal zero)
  | Occupation number:      0.00000000
  | K-point:       1 at    0.000000    0.000000    0.000000 (in units of recip. lattice)

  ESTIMATED overall HOMO-LUMO gap:      7.21554275 eV between HOMO at k-point 2 and LUMO at k-point 1
  | This appears to be an indirect band gap.
  | Smallest direct gap :      7.28050918 eV for k_point 1 at    0.000000    0.000000    0.000000 (in units of recip. lattice)
  The gap value is above 0.2 eV. Unless you are using a very sparse k-point grid,
  this system is most likely an insulator or a semiconductor.
  Calculating total energy contributions from superposition of free atom densities.

  Total energy components:
  | Sum of eigenvalues            :       -4531.63517281 Ha     -123312.06710115 eV
  | XC energy correction          :        -258.19694403 Ha       -7025.89632084 eV
  | XC potential correction       :         338.65410593 Ha        9215.24708892 eV
  | Free-atom electrostatic energy:       -3105.98347165 Ha      -84518.11049775 eV
  | Hartree energy correction     :           0.00000000 Ha           0.00000000 eV
  | Entropy correction            :          -0.00000000 Ha          -0.00000000 eV
  | ---------------------------
  | Total energy                  :       -7557.16148257 Ha     -205640.82683082 eV
  | Total energy, T -> 0          :       -7557.16148257 Ha     -205640.82683082 eV  <-- do not rely on this value for anything but (periodic) metals
  | Electronic free energy        :       -7557.16148257 Ha     -205640.82683082 eV

  Derived energy quantities:
  | Kinetic energy                :        7766.50475936 Ha      211337.34722812 eV
  | Electrostatic energy          :      -15065.46929790 Ha     -409952.27773810 eV
  | Energy correction for multipole
  | error in Hartree potential    :           0.00000000 Ha           0.00000000 eV
  | Sum of eigenvalues per atom                           :      -20552.01118353 eV
  | Total energy (T->0) per atom                          :      -34273.47113847 eV  <-- do not rely on this value for anything but (periodic) metals
  | Electronic free energy per atom                       :      -34273.47113847 eV
  Initialize hartree_potential_storage
  Max. number of atoms included in rho_multipole:            6

  End scf initialization - timings             :  max(cpu_time)    wall_clock(cpu1)
  | Time for scf. initialization               :        0.460 s           1.754 s
  | Boundary condition initialization          :        0.067 s           0.068 s
  | Integration                                :        0.169 s           0.339 s
  | Solution of K.-S. eqns.                    :        0.090 s           0.767 s
  | Grid partitioning                          :        0.032 s           0.051 s
  | Preloading free-atom quantities on grid    :        0.062 s           0.274 s
  | Free-atom superposition energy             :        0.017 s           0.041 s
  | Total energy evaluation                    :        0.001 s           0.097 s

  Partial memory accounting:
  | Current value for overall tracked memory usage:
  |   Minimum:        4.044 MB (on task 11)
  |   Maximum:        4.079 MB (on task  0)
  |   Average:        4.060 MB
  | Peak value for overall tracked memory usage:
  |   Minimum:       15.446 MB (on task 44 after allocating wave)
  |   Maximum:       17.204 MB (on task 92 after allocating wave)
  |   Average:       16.231 MB
  | Largest tracked array allocation so far:
  |   Minimum:        5.538 MB (hamiltonian_shell on task 44)
  |   Maximum:        7.017 MB (hamiltonian_shell on task 92)
  |   Average:        6.186 MB
  Note:  These values currently only include a subset of arrays which are explicitly tracked.
  The "true" memory usage will be greater.
------------------------------------------------------------
Convergence:    q app. |  density  | eigen (eV) | Etot (eV) | forces (eV/A) |       CPU time |     Clock time
  SCF    1 :  0.71E-03 |  0.62E+00 |  -0.12E+02 |  0.39E+01 |             . |        0.335 s |        0.584 s
  SCF    2 :  0.23E-02 |  0.42E+00 |  -0.32E+02 |  0.34E+01 |             . |        0.268 s |        0.268 s
  SCF    3 :  0.34E-02 |  0.15E+00 |  -0.60E+01 | -0.79E-01 |             . |        0.256 s |        0.256 s
  SCF    4 :  0.45E-02 |  0.11E+00 |  -0.15E+02 |  0.23E+00 |             . |        0.256 s |        0.256 s
  SCF    5 :  0.41E-02 |  0.14E-01 |   0.66E+01 | -0.13E-02 |             . |        0.257 s |        0.256 s
  SCF    6 :  0.36E-02 |  0.91E-02 |   0.15E+01 |  0.15E-02 |             . |        0.254 s |        0.254 s
  SCF    7 :  0.17E-02 |  0.24E-02 |   0.90E+00 |  0.26E-03 |             . |        0.255 s |        0.255 s
  SCF    8 :  0.21E-03 |  0.48E-03 |  -0.28E+00 |  0.72E-05 |             . |        0.256 s |        0.256 s
  SCF    9 : -0.53E-04 |  0.13E-03 |   0.10E-01 | -0.63E-05 |             . |        0.257 s |        0.257 s
  SCF   10 : -0.75E-03 |  0.56E-04 |   0.28E-01 |  0.28E-05 |             . |        0.256 s |        0.256 s
  SCF   11 : -0.75E-03 |  0.11E-04 |  -0.16E-02 |  0.84E-07 |             . |        0.254 s |        0.254 s
  SCF   12 : -0.75E-03 |  0.43E-05 |  -0.34E-02 |  0.20E-06 |             . |        0.254 s |        0.253 s
  SCF   13 : -0.75E-03 |  0.17E-05 |   0.89E-05 |  0.56E-07 |             . |        0.253 s |        0.253 s
  SCF   14 : -0.75E-03 |  0.20E-06 |  -0.44E-05 |  0.13E-07 |             . |        0.255 s |        0.255 s
  SCF   15 : -0.75E-03 |  0.14E-06 |  -0.11E-04 |  0.17E-08 |      0.52E+00 |        0.339 s |        0.340 s
  SCF   16 : -0.75E-03 |  0.23E-08 |   0.69E-06 |  0.00E+00 |      0.36E-06 |        3.421 s |        3.423 s

  Total energy components:
  | Sum of eigenvalues            :       -4533.74815102 Ha     -123369.56416365 eV
  | XC energy correction          :        -258.53006698 Ha       -7034.96105727 eV
  | XC potential correction       :         339.08772071 Ha        9227.04634750 eV
  | Free-atom electrostatic energy:       -3105.98347165 Ha      -84518.11049775 eV
  | Hartree energy correction     :           2.28555502 Ha          62.19311632 eV
  | Entropy correction            :          -0.00000000 Ha          -0.00000000 eV
  | ---------------------------
  | Total energy                  :       -7556.88841392 Ha     -205633.39625485 eV
  | Total energy, T -> 0          :       -7556.88841392 Ha     -205633.39625485 eV  <-- do not rely on this value for anything but (periodic) metals
  | Electronic free energy        :       -7556.88841392 Ha     -205633.39625485 eV

  Derived energy quantities:
  | Kinetic energy                :        7766.29048164 Ha      211331.51643463 eV
  | Electrostatic energy          :      -15064.64882859 Ha     -409929.95163221 eV
  | Energy correction for multipole
  | error in Hartree potential    :           0.00969337 Ha           0.26377009 eV
  | Sum of eigenvalues per atom                           :      -20561.59402728 eV
[...]
  | Electronic free energy        :         -0.205633413037937E+06 eV
  Total atomic forces (unitary forces cleaned) [eV/Ang]:
  |    1          0.105692233032724E-07          0.282343490483359E-07          0.269033874150320E-06
  |    2         -0.449790154009808E-07         -0.166365262978771E-06         -0.313067142746667E-06
  |    3          0.905390116787293E-08          0.348305516247699E-07         -0.122748873456089E-02
  |    4          0.823961675434418E-08          0.343836411515415E-07         -0.122751388505753E-02
  |    5          0.904420152606872E-08          0.345080860052450E-07          0.122750677961275E-02
  |    6          0.807207264942259E-08          0.344086351488787E-07          0.122753987327427E-02

  Removing unitary transformations (pure translations, rotations) from forces on atoms.
  Atomic forces before filtering:
  | Net force on center of mass :   0.146215E-22  0.372184E-22  0.348449E-18 eV/A
  Atomic forces after filtering:
  | Net force on center of mass :   0.132923E-23 -0.478523E-22  0.348449E-18 eV/A
 ------------------------------------------------------------------------
 Atomic structure that was used in the preceding time step of the wrapper
                         x [A]             y [A]             z [A]
  lattice_vector         2.54864057        2.54864057        0.00000000
  lattice_vector        -2.54864057        2.54864057        0.00000000
  lattice_vector         0.00000000        0.00000000        5.22597278

            atom         0.00000000        0.00000000        0.00000000  Zr
            atom         0.00000000        2.54864057        2.61298639  Zr
            atom         1.27432029        1.27432029        1.00270821  O
            atom         1.27432029        1.27432029       -1.61027818  O
            atom        -1.27432029        1.27432029        1.61027818  O
            atom        -1.27432029        1.27432029       -1.00270821  O
 ------------------------------------------------------------------------
  @ DRIVER MODE: Message from server: STATUS      
  @ DRIVER MODE: Message from server: GETFORCE    
  @ DRIVER MODE: Returning v,forces,stress 
  @ DRIVER MODE: Message from server: STATUS      
  @ DRIVER MODE: Message from server: INIT        
  @ DRIVER MODE: Receiving replica           0
  @ DRIVER MODE: Message from server: STATUS      
  @ DRIVER MODE: Message from server: POSDATA     
  @ DRIVER MODE: Received positions 

------------------------------------------------------------
          Begin self-consistency loop: Re-initialization.

  Date     :  20210218, Time     :  120216.542
------------------------------------------------------------

  Initializing index lists of integration centers etc. from given atomic structure:
  Mapping all atomic coordinates to central unit cell.

  Initializing the k-points
  Using symmetry for reducing the k-points
  | k-points reduced from:        8 to        8
  | Number of k-points                             :         8
  The eigenvectors in the calculations are REAL.
  | Number of basis functions in the Hamiltonian integrals :      3066
  | Number of basis functions in a single unit cell        :       164
  | Number of centers in hartree potential         :      1102
  | Number of centers in hartree multipole         :       683
  | Number of centers in electron density summation:       485
  | Number of centers in basis integrals           :       566
  | Number of centers in integrals                 :       175
  | Number of centers in hamiltonian               :       485
  | Consuming         15 KiB for k_phase.
  | Number of super-cells (origin) [n_cells]                     :         847
  | Number of super-cells (after PM_index) [n_cells]             :         126
  | Number of super-cells in hamiltonian [n_cells_in_hamiltonian]:         126
  | Size of matrix packed + index [n_hamiltonian_matrix_size] :      390657
  Partitioning the integration grid into batches with parallel hashing+maxmin method.
  Initializing partition tables, free-atom densities, potentials, etc. across the integration grid (initialize_grid_storage).
  | Species        1: outer_partition_radius set to              5.008334078144968 AA .
  | Species        2: outer_partition_radius set to              5.048384829883283 AA .
  | Net number of integration points:    39856
  | of which are non-zero points    :    32940
  Calculating total energy contributions from superposition of free atom densities.
  Initialize hartree_potential_storage
  Max. number of atoms included in rho_multipole:            6
  Integrating overlap matrix.
  Time summed over all CPUs for integration: real work        4.319 s, elapsed        4.963 s
  Normalizing  ScaLAPACK eigenvectors

  End scf reinitialization - timings           :  max(cpu_time)    wall_clock(cpu1)
  | Time for scf. reinitialization             :        0.176 s           0.176 s
  | Boundary condition initialization          :        0.065 s           0.065 s
  | Integration                                :        0.058 s           0.058 s
  | Grid partitioning                          :        0.013 s           0.013 s
  | Preloading free-atom quantities on grid    :        0.033 s           0.033 s
  | Free-atom superposition energy             :        0.004 s           0.004 s
  | K.-S. eigenvector reorthonormalization     :        0.003 s           0.003 s
------------------------------------------------------------
Convergence:    q app. |  density  | eigen (eV) | Etot (eV) | forces (eV/A) |       CPU time |     Clock time
  SCF    1 : -0.41E-03 |  0.24E+00 |  -0.12E+06 | -0.21E+06 |             . |        0.248 s |        0.248 s
  SCF    2 : -0.41E-03 |  0.98E-04 |  -0.14E-01 | -0.74E-06 |             . |        0.246 s |        0.246 s
  SCF    3 : -0.43E-03 |  0.78E-04 |  -0.51E-01 | -0.29E-05 |             . |        0.247 s |        0.247 s
  SCF    4 : -0.42E-03 |  0.18E-04 |  -0.61E-02 | -0.52E-06 |             . |        0.249 s |        0.249 s
  SCF    5 : -0.41E-03 |  0.86E-05 |   0.30E-02 | -0.75E-07 |             . |        0.253 s |        0.253 s
  SCF    6 : -0.41E-03 |  0.11E-05 |   0.72E-03 | -0.11E-06 |             . |        0.251 s |        0.251 s
  SCF    7 : -0.41E-03 |  0.11E-06 |  -0.86E-04 |  0.97E-08 |             . |        0.249 s |        0.250 s
  SCF    8 : -0.41E-03 |  0.20E-07 |   0.13E-05 |  0.49E-09 |      0.47E+00 |        0.329 s |        0.330 s
  SCF    9 : -0.41E-03 |  0.13E-07 |  -0.15E-05 |  0.11E-08 |      0.10E-05 |        3.308 s |        3.310 s

  Total energy components:
  | Sum of eigenvalues            :       -4533.55174466 Ha     -123364.21967462 eV
  | XC energy correction          :        -258.51354866 Ha       -7034.51157118 eV
  | XC potential correction       :         339.06514603 Ha        9226.43205924 eV
  | Free-atom electrostatic energy:       -3106.04619610 Ha      -84519.81731685 eV
  | Hartree energy correction     :           2.15730793 Ha          58.70333570 eV
  | Entropy correction            :          -0.00000000 Ha          -0.00000000 eV
  | ---------------------------
  | Total energy                  :       -7556.88903546 Ha     -205633.41316771 eV
  | Total energy, T -> 0          :       -7556.88903546 Ha     -205633.41316771 eV  <-- do not rely on this value for anything but (periodic) metals
  | Electronic free energy        :       -7556.88903546 Ha     -205633.41316771 eV

  Derived energy quantities:
  | Kinetic energy                :        7766.26890415 Ha      211330.92928117 eV
  | Electrostatic energy          :      -15064.64439094 Ha     -409929.83087770 eV
  | Energy correction for multipole
  | error in Hartree potential    :           0.00821266 Ha           0.22347797 eV
  | Sum of eigenvalues per atom                           :      -20560.70327910 eV
  | Total energy (T->0) per atom                          :      -34272.23552795 eV  <-- do not rely on this value for anything but (periodic) metals
  | Electronic free energy per atom                       :      -34272.23552795 eV
  What follows are estimated values for band gap, HOMO, LUMO, etc.
  | They are estimated on a discrete k-point grid and not necessarily exact.
  | For converged numbers, create a DOS and/or band structure plot on a denser k-grid.

  Highest occupied state (VBM) at     -8.90686098 eV (relative to internal zero)
  | Occupation number:      2.00000000
  | K-point:       2 at    0.000000    0.000000    0.500000 (in units of recip. lattice)

  Lowest unoccupied state (CBM) at    -4.92163641 eV (relative to internal zero)
  | Occupation number:      0.00000000
  | K-point:       1 at    0.000000    0.000000    0.000000 (in units of recip. lattice)

  ESTIMATED overall HOMO-LUMO gap:      3.98522457 eV between HOMO at k-point 2 and LUMO at k-point 1
  | This appears to be an indirect band gap.
  | Smallest direct gap :      4.05552751 eV for k_point 1 at    0.000000    0.000000    0.000000 (in units of recip. lattice)
  The gap value is above 0.2 eV. Unless you are using a very sparse k-point grid,
  this system is most likely an insulator or a semiconductor.

  Self-consistency cycle converged.

  +-------------------------------------------------------------------+
  |              Analytical stress tensor - Symmetrized               |
  |                  Cartesian components [eV/A**3]                   |
  +-------------------------------------------------------------------+
  |                x                y                z                |
  |                                                                   |
  |  x        -0.00000389      -0.00000000       0.00000000           |
  |  y        -0.00000000      -0.00000944       0.00000000           |
  |  z         0.00000000       0.00000000      -0.00000101           |
  |                                                                   |
  |  Pressure:       0.00000478   [eV/A**3]                           |
  |                                                                   |
  +-------------------------------------------------------------------+
  Removing unitary transformations (pure translations, rotations) from forces on atoms.
  Atomic forces before filtering:
  | Net force on center of mass :  -0.324855E-07  0.751751E-06 -0.286322E-06 eV/A
  Atomic forces after filtering:
  | Net force on center of mass :   0.132923E-23 -0.127606E-21  0.000000E+00 eV/A

  Energy and forces in a compact form:
  | Total energy uncorrected      :         -0.205633413167713E+06 eV
  | Total energy corrected        :         -0.205633413167713E+06 eV  <-- do not rely on this value for anything but (periodic) metals
  | Electronic free energy        :         -0.205633413167713E+06 eV
  Total atomic forces (unitary forces cleaned) [eV/Ang]:
  |    1          0.145392218861041E-07         -0.381940108111559E-07         -0.308671656174407E-06
  |    2         -0.367891626154659E-07          0.539007313575085E-06          0.118110863276364E-06
  |    3          0.597474901332502E-08         -0.124863781257383E-06          0.673131323733399E-04
  |    4          0.565126733396119E-08         -0.125271098920502E-06          0.673387006498791E-04
  |    5          0.556297968960300E-08         -0.125348697422376E-06         -0.672159415229222E-04
  |    6          0.506094469247257E-08         -0.125329725163669E-06         -0.672453307073987E-04

  Removing unitary transformations (pure translations, rotations) from forces on atoms.
  Atomic forces before filtering:
  | Net force on center of mass :   0.132923E-23 -0.127606E-21  0.000000E+00 eV/A
  Atomic forces after filtering:
  | Net force on center of mass :  -0.132923E-23 -0.425353E-22  0.000000E+00 eV/A
 ------------------------------------------------------------------------
 Atomic structure that was used in the preceding time step of the wrapper
                         x [A]             y [A]             z [A]
  lattice_vector         2.54881012        2.54881012        0.00000000
  lattice_vector        -2.54881012        2.54881012        0.00000000
  lattice_vector         0.00000000        0.00000000        5.22362586

            atom         0.00000000        0.00000000        0.00000000  Zr
            atom         0.00000000        2.54881012        2.61181293  Zr
            atom         1.27440506        1.27440506        1.00241693  O
            atom         1.27440506        1.27440506       -1.60939600  O
            atom        -1.27440506        1.27440506        1.60939600  O
            atom        -1.27440506        1.27440506       -1.00241693  O
 ------------------------------------------------------------------------
  @ DRIVER MODE: Message from server: STATUS      
  @ DRIVER MODE: Message from server: GETFORCE    
  @ DRIVER MODE: Returning v,forces,stress 

------------------------------------------------------------------------------
  Final output of selected total energy values:

  The following output summarizes some interesting total energy values
  at the end of a run (AFTER all relaxation, molecular dynamics, etc.).

  | Total energy of the DFT / Hartree-Fock s.c.f. calculation      :        -205633.413167713 eV
  | Final zero-broadening corrected energy (caution - metals only) :        -205633.413167713 eV
  | For reference only, the value of 1 Hartree used in FHI-aims is :             27.211384500 eV
  | For reference only, the overall average (free atom contribution
  | + realspace contribution) of the electrostatic potential after
  | s.c.f. convergence is                                          :            -20.228116017 eV

  Before relying on these values, please be sure to understand exactly which
  total energy value is referred to by a given number. Different objects may
  all carry the same name 'total energy'. Definitions:

  Total energy of the DFT / Hartree-Fock s.c.f. calculation:
  | Note that this energy does not include ANY quantities calculated after the
  | s.c.f. cycle, in particular not ANY RPA, MP2, etc. many-body perturbation terms.

  Final zero-broadening corrected energy:
  | For metallic systems only, a broadening of the occupation numbers at the Fermi
  | level can be extrapolated back to zero broadening by an electron-gas inspired
  | formula. For all systems that are not real metals, this value can be
  | meaningless and should be avoided.

------------------------------------------------------------------------------
  Methods described in the following list of references were used in this FHI-aims run.
  If you publish the results, please make sure to cite these reference if they apply.
  FHI-aims is an academic code, and for our developers (often, Ph.D. students
  and postdocs), scientific credit in the community is essential.
  Thank you for helping us!

  For any use of FHI-aims, please cite:

    Volker Blum, Ralf Gehrke, Felix Hanke, Paula Havu, Ville Havu,
    Xinguo Ren, Karsten Reuter, and Matthias Scheffler
    'Ab initio molecular simulations with numeric atom-centered orbitals'
    Computer Physics Communications 180, 2175-2196 (2009)
    http://dx.doi.org/10.1016/j.cpc.2009.06.022


  For the analytical stress tensor used in your run, please cite:

    Franz Knuth, Christian Carbogno, Viktor Atalla, Volker Blum, Matthias Scheffler
    'All-electron formalism for total energy strain derivatives and
    stress tensor components for numeric atom-centered orbitals'
    Computer Physics Communications 190, 33-50 (2015).
    http://dx.doi.org/10.1016/j.cpc.2015.01.003


  The provided symmetry information was generated with SPGlib:

    Atsushi Togo, Yusuke Seto, Dimitar Pashov
    SPGlib 1.7.3 obtained from http://spglib.sourceforge.net
    Copyright (C) 2008 Atsushi Togo


  The ELSI infrastructure was used in your run to solve the Kohn-Sham electronic structure.
  Please check out http://elsi-interchange.org to learn more.
  If scalability is important for your project, please acknowledge ELSI by citing:

    V. W-z. Yu, F. Corsetti, A. Garcia, W. P. Huhn, M. Jacquelin, W. Jia,
    B. Lange, L. Lin, J. Lu, W. Mi, A. Seifitokaldani, A. Vazquez-Mayagoitia,
    C. Yang, H. Yang, and V. Blum
    'ELSI: A unified software interface for Kohn-Sham electronic structure solvers'
    Computer Physics Communications 222, 267-285 (2018).
    http://dx.doi.org/10.1016/j.cpc.2017.09.007


  For the real-space grid partitioning and parallelization used in this calculation, please cite:

    Ville Havu, Volker Blum, Paula Havu, and Matthias Scheffler,
    'Efficient O(N) integration for all-electron electronic structure calculation'
    'using numerically tabulated basis functions'
    Journal of Computational Physics 228, 8367-8379 (2009).
    http://dx.doi.org/10.1016/j.jcp.2009.08.008

  Of course, there are many other important community references, e.g., those cited in the
  above references. Our list is limited to references that describe implementations in the
  FHI-aims code. The reason is purely practical (length of this list) - please credit others as well.

 * A warning was issued further up regarding the accuracy of onsite integrals.
   An integral with a negative eigenvalue was among the flagged integrals.
   In most standard situations, this warning is probably harmless.
   If needed, this can be verified by adjusting the radial_multiplier flag.

------------------------------------------------------------
          Leaving FHI-aims.
          Date     :  20210218, Time     :  120222.197

          Computational steps:
          | Number of self-consistency cycles          :          105
          | Number of SCF (re)initializations          :            9

          Detailed time accounting                     :  max(cpu_time)    wall_clock(cpu1)
          | Total time                                 :       59.460 s          67.024 s
          | Preparation time                           :        0.310 s           0.613 s
          | Boundary condition initalization           :        0.587 s           0.588 s
          | Grid partitioning                          :        0.141 s           0.158 s
          | Preloading free-atom quantities on grid    :        0.337 s           0.549 s
          | Free-atom superposition energy             :        0.047 s           0.071 s
          | Total time for integrations                :        8.619 s           8.800 s
          | Total time for solution of K.-S. equations :        0.616 s           1.290 s
          | Total time for density & force components  :       39.028 s          39.188 s
          | Total time for mixing & preconditioning    :        1.648 s           1.724 s
          | Total time for Hartree multipole update    :        0.115 s           0.129 s
          | Total time for Hartree multipole sum       :        5.902 s           5.907 s
          | Total time for total energy evaluation     :        0.014 s           0.112 s
          | Total time for scaled ZORA corrections     :        0.000 s           0.000 s

          Partial memory accounting:
          | Residual value for overall tracked memory usage across tasks:     0.000000 MB (should be 0.000000 MB)
          | Peak values for overall tracked memory usage:
          |   Minimum:       25.431 MB (on task 19 after allocating d_wave)
          |   Maximum:       27.626 MB (on task 88 after allocating d_wave)
          |   Average:       26.662 MB
          | Largest tracked array allocation:
          |   Minimum:        6.030 MB (density_matrix_con on task 19)
          |   Maximum:        7.017 MB (hamiltonian_shell on task 92)
          |   Average:        6.569 MB
          Note:  These values currently only include a subset of arrays which are explicitly tracked.
          The "true" memory usage will be greater.

          Have a nice day.
------------------------------------------------------------
